48002
Atoms. Timestep: 100000
1 7.06311 54.055 21.5834
1 41.5669 35.2105 6.2785
1 30.2995 43.9069 21.8772
1 12.5857 53.5419 18.9673
1 35.8081 37.804 24.9988
1 43.7579 28.3723 21.7974
1 32.5753 40.7 26.3778
1 16.9346 53.8822 -1.1026
1 15.0707 49.8745 26.2294
1 5.43294 56.2166 9.7535
1 23.5122 51.5031 8.15484
1 41.7364 34.8212 14.2133
1 33.0275 33.7584 33.1565
1 20.7292 52.0604 11.3062
1 51.4353 18.7955 8.5483
1 8.11793 50.8452 27.2726
1 47.3878 28.3195 7.79309
1 20.6509 50.4515 17.8215
1 10.1153 52.7039 23.755
1 43.157 22.1777 28.3009
1 24.2112 51.0049 -6.33266
1 29.3881 42.6724 26.9764
1 35.0451 29.0205 34.0957
1 13.765 49.7015 27.5314
1 43.5504 33.6125 -2.58736
1 23.7497 47.8486 22.5452
1 2.29446 55.9442 8.43364
1 34.4904 42.0064 18.0985
1 36.1663 41.9613 10.0045
1 6.0003 56.3406 11.6381
1 19.8686 33.1641 43.2052
1 36.08 42.5754 14.0105
1 37.2317 40.2278 0.242984
1 15.0712 49.7054 27.0929
1 8.19094 55.9934 9.43449
1 41.2601 36.3143 -1.69768
1 11.3291 53.0734 -7.72316
1 38.3524 10.0866 40.3771
1 37.9792 39.6963 4.16353
1 36.1071 15.112 41.8781
1 12.671 53.9259 18.0013
1 12.4892 53.2649 19.8524
1 41.2375 36.5021 10.8709
1 34.5425 40.6801 22.0345
1 29.2017 46.1883 14.9589
1 9.67129 51.0007 26.9857
1 24.0989 48.0207 20.0276
1 27.0492 38.6848 34.2494
1 7.8531 53.2614 -8.41332
1 -13.8604 48.028 25.9794
1 39.1906 31.7246 27.0234
1 43.3073 33.2417 6.78611
1 48.6333 4.3772 28.1097
1 26.7889 39.5259 32.9885
1 36.1473 41.86 -11.5119
1 49.6543 23.2581 -0.517668
1 39.8201 28.3507 27.9962
1 8.96658 55.764 9.57647
1 52.1937 15.1109 8.07034
1 44.971 19.255 27.2616
1 40.4396 14.6359 37.197
1 41.2971 33.6965 18.81
1 4.11751 55.705 5.01194
1 28.9129 32.4555 38.162
1 -9.34787 53.8231 11.0379
1 37.5192 13.8656 40.8502
1 26.3918 50.1581 4.35084
1 39.609 25.0509 30.5054
1 51.2847 14.966 -3.80799
1 39.0455 28.0532 29.1592
1 53.5603 9.00069 7.02912
1 2.95822 55.9055 14.5601
1 44.049 32.165 5.4469
1 -10.9596 54.4274 0.0551689
1 32.7256 34.5268 33.1661
1 27.6097 42.4414 28.5273
1 29.1429 25.3435 41.9536
1 23.3262 50.4938 13.3508
1 43.3782 30.2076 19.0692
1 33.7206 40.2571 24.9768
1 16.9658 44.4095 33.5232
1 29.4785 44.8012 20.2208
1 27.9409 44.1075 -22.591
1 24.5923 51.6034 2.00258
1 50.3595 20.2815 0.499591
1 19.2786 44.0029 32.325
1 -7.48437 53.2644 -8.54375
1 18.4099 49.9598 23.1415
1 27.4234 39.2501 33.2154
1 14.8387 43.0963 36.1111
1 33.2155 44.607 8.25965
1 27.0564 48.3031 -12.4944
1 34.9055 -2.12611 43.7982
1 47.1715 16.418 24.3354
1 50.9077 17.663 14.7755
1 34.7811 30.2753 33.7536
1 25.6067 23.2923 45.0441
1 48.7671 26.6874 -3.59583
1 50.2611 8.63184 22.2997
1 40.5023 36.7951 5.90984
1 36.9082 40.5133 2.72875
1 24.0389 49.7015 15.1991
1 39.3894 20.2353 34.1613
1 23.1863 51.1829 -7.7675
1 47.1149 9.54052 28.1809
1 11.1782 55.3237 10.9387
1 20.283 44.5059 31.0574
1 37.3041 40.5467 15.092
1 44.6398 31.3375 5.6733
1 36.5727 37.3215 24.6396
1 51.8066 9.19019 15.0902
1 48.1446 26.4697 12.0483
1 39.9401 20.0145 33.4056
1 44.1394 26.7616 22.5994
1 51.1749 15.9505 0.83675
1 52.9974 6.04422 -3.40891
1 46.5534 28.782 13.2188
1 25.2955 49.7035 -10.9445
1 10.4689 50.3592 28.5501
1 32.3125 42.7905 20.6888
1 50.509 20.7279 9.45245
1 42.3901 34.0655 6.93587
1 41.6131 36.6019 -4.9678
1 34.7366 27.0839 35.715
1 7.00697 53.1098 23.9532
1 -1.96505 54.9746 13.3876
1 -2.61488 35.5342 45.8534
1 47.281 27.8211 12.6694
1 35.681 42.6915 -8.35471
1 36.2325 41.2765 8.2688
1 27.2148 42.213 29.1616
1 26.9598 46.0485 19.4266
1 47.442 28.6334 -0.512602
1 45.9954 15.7246 27.388
1 39.7909 32.5121 25.4736
1 53.8569 2.04768 15.0953
1 49.274 21.6545 15.3173
1 42.785 18.5834 30.7332
1 20.2664 50.907 15.9726
1 6.21366 56.1517 9.859
1 33.6244 39.7663 25.9496
1 33.2121 41.9376 21.8716
1 26.1659 46.9079 19.055
1 17.7826 38.4257 40.0261
1 16.2349 53.3332 14.8858
1 21.5255 46.9579 26.5939
1 29.307 43.741 24.6428
1 43.2691 33.0354 5.49828
1 15.419 51.9312 19.4987
1 26.9797 24.1772 44.1632
1 26.5321 48.3917 14.6546
1 26.8668 30.4466 40.6378
1 24.2942 40.955 33.4846
1 49.464 19.8509 17.9996
1 41.0865 31.3886 23.6351
1 20.3222 49.3972 23.0315
1 23.4744 50.5626 -11.3873
1 51.6923 13.0026 -1.04324
1 39.508 26.8768 29.2682
1 38.7952 34.6798 23.6954
1 12.9465 45.8515 34.5496
1 17.087 50.3339 23.1785
1 33.7107 40.4489 23.9975
1 31.3106 37.5555 31.5951
1 20.6279 52.2611 10.0854
1 29.6536 41.4613 28.1818
1 24.7862 51.4531 4.15855
1 3.93218 56.1266 11.9309
1 36.9771 41.5094 13.7423
1 22.0381 49.5512 20.1248
1 30.06 43.6225 22.6808
1 33.2897 35.1188 32.1483
1 6.36737 48.1191 33.7085
1 26.4086 37.2304 35.942
1 37.5042 39.8557 5.91718
1 24.5777 45.8656 25.0038
1 44.0643 28.8796 19.7179
1 51.7145 11.8442 -6.91149
1 39.0003 32.1958 26.2134
1 47.8656 7.07378 28.3257
1 35.3689 26.6711 35.3291
1 40.6795 25.6814 28.5124
1 30.8093 37.0962 33.2301
1 11.7773 48.8256 30.826
1 23.334 38.755 36.8601
1 32.5493 45.2586 9.74502
1 24.1853 51.592 5.65541
1 22.5107 35.3408 40.0373
1 44.0649 30.6023 17.0907
1 31.5335 42.0231 25.0688
1 -5.53718 55.346 9.64166
1 13.4039 39.8793 40.653
1 11.0792 55.8224 6.21918
1 -5.2588 53.8659 18.9736
1 47.2604 3.96567 30.5422
1 42.3396 23.8525 28.0819
1 32.812 28.7593 36.2489
1 38.5632 28.6139 30.1069
1 13.5816 54.3163 -2.89409
1 52.9825 11.8158 9.06723
1 36.2379 27.7074 33.6973
1 21.2178 49.7999 20.6698
1 42.6791 34.5529 -2.69303
1 48.2976 17.0067 21.9022
1 53.4815 4.21056 13.6878
1 32.1871 43.0292 19.7814
1 47.3748 8.69085 28.0683
1 21.7299 51.0888 12.6345
1 44.5647 26.7933 21.5346
1 21.1189 52.615 6.12539
1 25.5933 47.2285 19.9404
1 -13.505 46.7981 29.264
1 20.4571 52.7554 8.56948
1 25.2354 45.1866 25.5106
1 16.9408 53.1213 12.8494
1 25.0338 51.0331 4.96584
1 30.3369 46.6359 11.6359
1 8.01066 56.3403 5.22732
1 20.7209 49.717 21.5255
1 32.0431 40.7841 27.1312
1 18.5496 46.1367 30.3649
1 49.2888 25.3926 2.47853
1 44.5684 28.6883 18.6505
1 39.5315 34.1227 23.3155
1 47.1596 20.4125 21.8219
1 47.9346 27.0976 12.3439
1 35.298 24.347 37.0124
1 43.2337 33.2093 8.26557
1 34.239 38.4322 27.7649
1 53.2783 11.4 6.65353
1 51.6782 17.1804 9.32877
1 41.8415 35.1323 3.22066
1 49.0043 24.8666 10.5632
1 32.5518 44.9874 12.4258
1 46.1337 14.3462 27.9256
1 23.3544 10.6161 51.2457
1 13.8259 49.7664 -20.9244
1 45.1348 8.68663 32.3656
1 10.7925 55.3994 2.47619
1 32.0537 14.1986 45.0552
1 35.1521 41.0997 19.162
1 47.4226 10.2153 27.5362
1 27.9288 29.6589 40.4303
1 42.9969 27.3411 23.7859
1 26.3398 29.372 41.7111
1 5.09667 55.5878 0.768637
1 46.2576 4.33833 31.9295
1 39.1305 39.0595 12.9639
1 19.2559 50.4289 20.7666
1 45.7719 17.5491 27.1609
1 21.5904 44.1776 30.7321
1 51.1945 4.49643 21.0534
1 44.158 29.8232 17.7773
1 40.2099 13.4879 37.7449
1 50.2332 20.599 1.25967
1 37.1397 29.3348 31.6118
1 31.6366 46.1 3.47896
1 17.2367 49.63 24.254
1 36.1938 21.7397 37.2397
1 53.3326 8.61849 8.2903
1 31.427 30.3371 37.0215
1 16.5764 52.2101 17.4525
1 37.29 26.4075 32.4288
1 -4.48387 54.9897 10.4256
1 26.2946 49.9556 -4.74818
1 10.5062 42.1058 39.054
1 40.0307 32.5996 24.5391
1 33.2234 45.0073 6.33418
1 19.672 43.5115 33.0262
1 26.7015 45.8083 22.1486
1 36.8416 24.8548 34.0712
1 26.0178 30.8327 41.3926
1 -8.82218 52.8032 18.4478
1 27.8117 23.7304 43.8856
1 10.3644 53.08 22.924
1 31.5539 5.68964 46.7305
1 17.0273 44.9959 32.952
1 19.9145 53.3932 -1.32538
1 32.5072 45.2773 -0.565911
1 49.4484 25.695 6.53281
1 32.3584 26.8329 38.1966
1 29.4651 45.8827 15.8706
1 50.3373 10.9074 20.3333
1 37.6728 37.1592 22.5982
1 42.5614 27.253 24.4439
1 52.6603 8.23236 -5.0734
1 42.8467 31.8743 17.1227
1 49.4447 24.9916 -2.31402
1 49.8335 22.6299 -9.65537
1 23.3988 52.3201 -0.531302
1 36.4898 19.0013 39.0604
1 34.8213 31.202 33.0719
1 30.6546 34.1801 35.3161
1 20.9393 51.7028 11.9537
1 33.8238 9.61131 44.1957
1 19.393 35.7966 41.6299
1 36.5901 24.6892 34.9176
1 41.2493 20.8466 31.1332
1 14.7629 39.333 40.938
1 39.2743 35.6947 21.2007
1 48.0813 18.7197 21.4529
1 29.2218 46.5016 14.1615
1 28.2031 48.0858 12.3516
1 21.6769 28.6291 45.0659
1 50.5945 15.0749 17.3022
1 10.2898 54.841 18.3575
1 13.5627 53.7148 -5.63139
1 36.0429 32.735 30.6296
1 23.8599 41.7155 32.3134
1 25.7514 47.8792 18.1695
1 22.2669 45.3909 29.2821
1 6.77038 45.3867 -32.9619
1 49.4192 24.8909 7.85881
1 49.5992 12.7261 21.8102
1 37.2648 38.999 19.3375
1 53.9546 -1.51864 14.5463
1 39.6772 23.574 31.1315
1 32.5003 18.0892 43.6263
1 47.4603 17.5463 23.4676
1 49.0871 20.1948 18.7286
1 30.7231 35.6655 34.1591
1 44.2028 -8.15177 33.4235
1 -14.9095 41.5904 35.7803
1 6.08564 29.2572 50.4854
1 33.1026 11.6454 44.4162
1 -11.4015 40.8582 39.007
1 33.2398 43.2863 16.662
1 20.0181 31.5211 44.2891
1 34.0018 42.2193 18.7979
1 13.2052 51.9733 22.6897
1 8.25226 55.5807 16.7915
1 47.8988 28.2462 4.30006
1 21.5151 52.21 -7.4473
1 43.4371 33.0605 4.22052
1 24.3699 41.1936 32.7052
1 34.2969 41.1871 21.2605
1 49.0239 22.6922 14.9012
1 43.819 32.4437 9.65582
1 43.5513 22.1886 27.607
1 23.3235 48.6337 21.1094
1 17.4088 54.5101 3.20441
1 27.8289 48.9475 5.042
1 45.5893 18.4452 26.8922
1 47.1398 22.7728 -19.8349
1 33.9572 36.4719 29.7712
1 30.9081 29.5017 38.2703
1 53.1844 5.36182 -2.50793
1 39.4232 36.5363 18.6738
1 52.2919 12.3109 2.2726
1 53.0603 6.51424 -0.288024
1 52.1052 8.33169 15.2544
1 38.0645 8.05592 40.737
1 43.48 -3.81413 35.4272
1 44.484 22.1707 25.8214
1 -2.0493 50.1604 27.163
1 7.70752 50.5889 28.1247
1 23.0452 33.9378 40.8681
1 41.1756 33.7753 19.738
1 35.4035 21.304 38.8712
1 31.534 18.651 44.1618
1 -1.06137 36.3358 45.277
1 27.2393 29.4701 40.9526
1 35.652 27.9014 34.3545
1 27.1574 43.8178 26.4121
1 32.4123 -9.68094 44.7573
1 32.2506 12.5873 45.0247
1 47.633 25.9663 15.1313
1 40.7107 33.941 21.0902
1 36.7315 19.4413 38.3191
1 33.6258 44.2138 7.09963
1 54.9286 -3.05132 6.04726
1 49.6611 23.2924 10.7429
1 33.7026 39.108 26.6599
1 39.9621 37.9694 10.2485
1 19.1093 42.9416 34.5181
1 17.7239 50.776 20.5499
1 26.8935 45.8878 21.3578
1 47.6393 6.09606 28.9039
1 20.2974 48.8867 23.8395
1 46.3954 17.8997 24.5813
1 34.033 43.2405 14.95
1 7.71947 51.2497 26.1193
1 44.3485 16.005 30.188
1 51.4302 3.52114 21.1421
1 41.3926 23.6733 29.059
1 54.9369 -2.16774 7.26668
1 34.7421 24.0058 37.7309
1 52.2831 14.6824 6.79129
1 7.83659 56.0069 10.2882
1 22.9513 48.2046 22.1486
1 9.75013 38.9593 42.3693
1 22.6132 48.7452 21.4671
1 12.0313 54.6517 15.0537
1 10.6467 55.3492 13.5466
1 22.2555 16.2125 49.7714
1 12.3424 43.7231 37.0158
1 36.9217 22.5859 35.6083
1 18.5329 38.9081 39.4873
1 41.8335 16.614 33.9656
1 47.1568 3.18336 30.8392
1 51.9331 -3.59745 21.5695
1 14.3327 55.0512 6.87059
1 27.356 38.1146 34.9451
1 46.625 20.0154 23.535
1 41.6641 35.2186 11.8295
1 38.8952 30.9612 27.7409
1 43.7057 27.3988 22.9124
1 52.9631 3.33862 -5.83741
1 41.7831 25.7574 -26.7248
1 32.1163 23.804 40.4938
1 44.3684 20.3248 27.7523
1 39.8493 24.2301 30.6868
1 48.2232 5.91811 28.1793
1 43.6518 28.7826 21.0091
1 50.9006 20.086 4.37828
1 52.2581 10.6946 -5.14727
1 33.7428 0.211162 44.7855
1 30.8172 22.4855 42.598
1 11.7687 46.9964 33.6449
1 47.0792 10.9957 27.8346
1 24.1349 34.4543 39.7491
1 38.2625 26.531 31.4424
1 51.3731 15.3468 13.8146
1 11.1547 36.5148 43.7539
1 11.4778 55.0129 13.6769
1 32.0303 33.6622 34.479
1 54.35 -0.948129 1.75594
1 31.7542 42.7435 23.2775
1 27.677 48.8462 10.4569
1 33.7747 14.9911 43.7179
1 33.4945 10.3234 44.3545
1 31.8595 43.2723 21.5027
1 37.4163 40.2823 3.67449
1 10.3825 43.4586 37.9665
1 25.6679 7.88978 50.4359
1 27.6324 27.0774 42.1456
1 30.0383 46.4305 12.4161
1 54.4499 1.24923 6.91518
1 25.1522 42.0139 31.1365
1 31.2722 25.3637 40.2649
1 38.6468 25.6502 31.3998
1 47.5282 26.7784 14.5725
1 40.5466 28.4071 27.0106
1 33.0446 44.9055 10.4666
1 40.1734 37.6445 -9.98825
1 44.5002 31.992 2.78571
1 42.9686 8.79882 35.4386
1 51.5506 12.759 -8.4031
1 47.2636 25.8051 17.6863
1 45.6 26.4102 19.8014
1 45.7286 30.8127 10.1444
1 39.8585 11.7426 38.1653
1 51.1681 4.31385 21.9003
1 19.5022 44.9838 31.0888
1 33.384 32.625 33.762
1 33.7515 31.8182 33.9475
1 28.4906 30.3968 39.4666
1 40.3497 6.97907 38.3795
1 36.2302 40.2209 18.4092
1 32.5891 41.3789 25.2966
1 38.434 0.402272 40.635
1 35.0102 18.6933 40.9551
1 -12.6661 53.046 11.9613
1 23.2086 49.9134 15.5541
1 23.8137 46.0579 25.5324
1 47.5708 -1.67847 30.4598
1 48.1823 2.81418 28.9081
1 35.024 -4.65104 43.8238
1 22.9273 42.3142 32.3714
1 42.1852 17.9329 32.0696
1 43.4514 3.85693 35.2865
1 28.4837 35.5623 36.3619
1 49.9864 6.10783 -17.1333
1 32.1809 18.8617 43.5099
1 29.6405 8.76291 47.9553
1 14.2678 51.3091 24.1528
1 25.0342 33.0637 40.54
1 33.5392 26.2559 37.372
1 20.672 41.6075 35.3084
1 31.3912 24.4918 40.5978
1 35.0702 -3.77259 43.7125
1 42.4525 34.3687 -13.7191
1 41.467 18.4361 32.5079
1 29.857 44.6979 17.9081
1 28.1565 32.5742 38.4933
1 41.1964 25.0717 28.1545
1 44.561 31.4571 4.7132
1 53.6368 4.53891 13.0022
1 45.0901 7.92144 32.9389
1 41.0077 21.7184 30.7961
1 39.5142 14.0329 38.4969
1 47.9244 19.5067 20.8682
1 30.2831 21.5923 43.7988
1 52.5284 10.3627 11.7202
1 44.7948 -8.61301 32.5625
1 52.4683 11.1932 11.9273
1 5.63442 38.3979 43.4965
1 50.2331 19.6722 14.7238
1 49.949 10.2492 21.049
1 32.2755 26.1283 38.8101
1 24.8453 33.746 40.0448
1 17.1774 39.9984 39.1534
1 6.87081 29.7947 49.9716
1 12.8931 49.2623 29.25
1 41.7026 35.9762 -2.38055
1 23.8736 24.1848 45.7892
1 21.7129 36.9337 39.1779
1 33.7152 41.0942 22.1949
1 47.7504 5.27847 29.291
1 27.7227 38.4655 33.7025
1 50.258 7.23394 23.7547
1 48.1024 0.446279 29.7049
1 44.4449 21.7662 -25.234
1 43.5829 10.4054 34.9064
1 22.7545 40.0663 35.9166
1 31.4985 12.4951 45.5832
1 48.5414 10.6249 25.3693
1 29.7232 47.3604 -0.315849
1 49.9918 15.5078 19.2654
1 51.0625 17.6557 0.493196
1 17.8272 12.8514 52.9479
1 46.0277 11.8974 29.4964
1 36.7369 38.8143 21.3049
1 49.299 26.2414 8.27192
1 52.9028 8.11997 2.59657
1 38.649 36.0936 21.9223
1 42.1247 19.3864 31.0182
1 44.5938 16.622 29.5569
1 52.4267 10.6041 -0.221457
1 40.9778 24.7399 28.8601
1 30.2625 42.3233 26.424
1 45.286 15.1383 28.7898
1 24.894 18.1316 48.1164
1 31.687 25.8293 39.4328
1 24.1084 8.20445 51.3896
1 45.8903 7.35993 31.4196
1 25.2905 5.96026 50.7045
1 24.4883 3.59237 51.5719
1 44.8074 7.17239 33.246
1 36.1779 16.1779 41.5606
1 14.681 50.402 25.5834
1 33.0421 43.2665 17.5008
1 50.6416 17.9058 13.9554
1 15.5589 52.3799 17.9738
1 22.9195 41.9636 33.213
1 14.2084 52.1543 21.0751
1 14.0382 51.7967 23.1313
1 26.7382 39.9806 32.1663
1 53.2239 8.5338 11.2062
1 39.4595 38.2169 12.3659
1 29.3483 44.8553 18.6725
1 39.6238 20.9683 33.1303
1 42.4194 32.3293 17.7818
1 25.3492 29.5701 42.4824
1 30.7788 44.6588 16.5633
1 33.0429 17.8386 43.0629
1 17.4222 49.4295 25.3127
1 30.2205 45.8293 15.2227
1 47.6043 22.9546 19.2203
1 53.3909 6.46764 13.3601
1 28.0038 31.2077 39.3916
1 42.0599 27.4439 25.2899
1 35.8594 29.1447 33.1531
1 30.4693 40.2259 29.2652
1 34.6871 41.0879 20.5451
1 50.049 23.3298 7.20086
1 36.7658 36.1869 26.1878
1 31.2281 27.8134 38.7579
1 38.5113 26.7632 30.4998
1 11.2821 34.628 45.5187
1 24.9669 48.7903 16.4573
1 46.3805 26.8525 18.1519
1 42.7989 -2.4038 36.2647
1 47.6478 14.1351 24.6784
1 25.0475 34.5156 39.3562
1 18.6553 11.7876 52.7805
1 36.8065 13.9357 41.4621
1 33.5573 19.9483 41.4465
1 26.8772 35.5021 37.3389
1 5.15608 44.3818 37.5489
1 30.9873 43.1296 23.8563
1 34.1594 39.6005 25.2613
1 34.4178 40.197 23.4155
1 26.8407 46.5268 18.4323
1 40.4796 20.2974 32.767
1 23.804 48.9006 19.2475
1 16.4614 24.4051 49.927
1 41.2533 35.7634 3.71324
1 50.2774 21.3385 3.83033
1 -3.37997 51.46 24.2827
1 40.6583 24.0701 29.2937
1 22.8057 39.2845 36.411
1 41.5943 15.8964 34.827
1 52.7852 7.39282 -0.809984
1 14.4981 54.6153 9.26227
1 47.0386 18.1388 23.9774
1 41.9148 35.6304 -12.9129
1 54.4781 -15.2257 0.493014
1 39.2031 18.2141 35.9745
1 37.4636 40.2453 2.25051
1 54.4976 1.56194 5.95197
1 44.7099 12.6127 31.1388
1 37.442 15.4364 40.0237
1 25.0533 9.18196 50.7291
1 48.5538 23.2104 16.5149
1 22.1982 40.5973 35.4045
1 22.9907 51.4119 10.834
1 30.5303 25.761 40.5332
1 30.5279 14.6564 45.9287
1 41.1793 7.69058 37.2059
1 50.9827 14.9004 16.5259
1 28.2646 31.6872 38.9247
1 23.3941 31.771 42.5118
1 14.7295 33.3018 45.2975
1 51.4291 10.709 -9.18898
1 12.592 48.3852 30.9035
1 30.3802 44.2719 20.1765
1 39.0779 16.0364 38.1749
1 22.1306 27.9656 45.1101
1 36.4696 40.2781 17.5955
1 14.5655 48.7432 28.7834
1 47.2594 26.3696 16.4586
1 33.9871 44.2068 10.2455
1 29.1765 45.276 17.568
1 47.2055 24.1687 19.0244
1 27.9604 46.0975 18.0438
1 14.1194 54.1836 12.9081
1 43.9 32.4824 3.61392
1 20.5889 48.0199 25.6196
1 15.3566 53.8466 13.3311
1 44.2992 27.7222 21.3225
1 45.0493 16.9107 28.7341
1 38.9287 27.1948 29.8818
1 23.1585 20.0948 48.4692
1 51.7749 12.7901 12.695
1 40.8561 22.7512 30.5889
1 27.3956 34.7371 37.5282
1 25.4074 17.478 47.8029
1 6.50396 25.0227 52.1281
1 24.9554 32.3546 41.1858
1 24.8205 16.4786 48.4875
1 44.5387 8.04395 33.7072
1 32.0868 -3.8115 45.6249
1 40.8507 4.41464 38.3196
1 48.9485 -5.05348 27.8205
1 1.40646 38.1852 43.6325
1 29.5645 34.1708 36.642
1 21.8269 23.8565 46.9542
1 43.0479 19.832 29.7798
1 21.7452 38.7572 37.7641
1 31.6501 34.8158 34.1558
1 39.5109 19.535 34.6493
1 39.1723 13.2759 38.8405
1 15.5044 50.9458 22.8034
1 35.0013 37.5177 27.1728
1 31.8619 45.6588 11.335
1 17.3093 51.1727 18.9181
1 42.1699 25.9901 26.4584
1 53.4971 7.15936 11.9991
1 38.5665 39.6815 12.9908
1 28.3926 25.4267 42.799
1 40.9208 3.58762 38.2714
1 43.4244 18.2726 30.3042
1 34.2582 16.6284 42.9309
1 30.084 43.2068 24.4524
1 20.6014 52.7795 7.73089
1 53.6905 2.81657 15.4731
1 5.59107 38.9227 42.8864
1 38.8842 14.6818 38.9713
1 36.602 18.1626 39.1883
1 47.3879 6.99119 29.2293
1 51.0538 1.78415 23.3763
1 33.8292 30.7165 34.3757
1 49.0758 10.9873 23.8754
1 42.3758 11.763 35.906
1 21.4697 39.4287 37.3693
1 12.5673 55.3899 8.47653
1 4.29212 46.3462 35.101
1 24.9043 23.423 45.5376
1 15.1047 28.0061 48.6843
1 11.6471 41.089 40.1033
1 33.008 24.1186 39.4923
1 15.7282 33.5604 44.7334
1 32.2924 5.33809 46.3627
1 25.1 38.4224 35.9215
1 52.5101 -6.18489 17.7684
1 33.1212 42.3826 21.0137
1 13.872 45.395 34.3971
1 52.9973 8.11392 12.7854
1 12.2356 42.3966 38.5164
1 -5.49788 53.9231 16.6121
1 41.3495 28.9659 25.6905
1 46.4974 -5.13263 31.0059
1 12.6957 37.2076 42.9485
1 12.7243 39.9369 41.1056
1 45.4702 24.5168 22.5009
1 42.0731 13.8734 35.3251
1 18.0249 26.8838 47.9007
1 20.6019 34.1907 41.8835
1 48.5494 -2.27048 28.9929
1 35.5057 20.2391 39.7614
1 33.4075 -5.2633 44.3866
1 28.9022 38.5558 32.5686
1 33.4009 37.4453 29.1155
1 6.18184 10.2828 56.7643
1 19.7993 36.1231 40.8647
1 26.8454 41.2957 30.7441
1 38.3385 29.7856 29.0958
1 46.9599 23.7835 19.8218
1 15.8937 28.2831 48.4045
1 39.8134 14.3645 37.7794
1 36.7086 33.2157 28.9833
1 26.0774 42.5403 29.6871
1 30.2101 33.5876 36.1965
1 8.95709 52.5058 24.4948
1 48.1804 10.4443 26.0595
1 47.1249 -10.0893 29.8264
1 40.898 30.6099 25.0663
1 4.13285 38.188 43.7131
1 35.7095 37.4648 26.249
1 39.7606 34.5757 22.5635
1 42.2571 -5.27778 36.0825
1 30.693 -1.02685 46.7012
1 17.5447 18.9018 51.3119
1 39.7204 27.3449 28.5148
1 40.9302 14.5607 36.4289
1 40.3601 12.357 37.6259
1 15.9742 54.546 5.0308
1 17.3919 30.5362 46.0738
1 50.3922 12.4607 19.2481
1 46.4273 -6.0275 30.7691
1 16.337 54.3995 8.08209
1 34.1762 15.7586 43.1021
1 22.6345 20.8351 48.2728
1 33.6664 -0.879511 44.9258
1 23.9736 5.38744 51.7547
1 22.676 13.2772 50.6643
1 25.8409 49.1423 13.509
1 43.4192 11.5245 34.053
1 41.1954 14.9555 35.627
1 30.8254 19.3336 44.3257
1 49.6256 -10.3696 25.7301
1 46.7661 4.75359 31.0715
1 -10.0687 31.6969 46.7808
1 34.3158 17.393 42.4378
1 17.2724 35.6096 42.3679
1 29.3066 39.5033 30.9955
1 28.014 33.2857 38.0748
1 29.6882 31.0117 38.1507
1 36.549 31.902 30.458
1 45.9412 11.0335 29.9254
1 21.197 7.83717 52.4196
1 45.1188 9.85832 32.0614
1 18.7283 37.883 39.9139
1 29.8013 24.6276 42.1356
1 46.4276 7.11881 30.7233
1 32.7432 41.4993 23.966
1 49.1037 9.73023 25.1493
1 51.5068 2.71907 21.3422
1 19.6907 28.7166 46.1229
1 31.8533 -8.06929 45.4613
1 38.6565 6.9489 40.6009
1 52.6312 -1.79125 18.2391
1 33.5674 24.0346 38.8587
1 51.126 16.1714 13.6894
1 35.4752 39.5477 22.9259
1 15.4116 30.3369 47.1572
1 33.6319 35.3707 31.2829
1 53.5295 5.45063 14.8759
1 41.4629 5.82389 37.525
1 32.7275 29.5727 36.2391
1 43.7796 9.68528 34.5467
1 41.4458 19.9254 31.6327
1 38.7084 12.2839 39.5518
1 31.8239 27.0549 38.7597
1 31.1562 46.6905 7.37257
1 40.7078 -9.14026 36.5249
1 45.8785 23.7987 22.0451
1 24.7132 28.8818 43.1697
1 46.5453 9.45048 29.0399
1 29.1915 20.8888 44.5474
1 36.8304 4.88989 42.0949
1 43.3389 9.76672 35.395
1 27.3532 21.2222 45.5052
1 42.8297 23.4182 27.3183
1 36.2421 29.7827 32.5436
1 35.7066 17.6813 40.9171
1 32.1364 20.3096 42.5904
1 22.9274 45.2118 28.6976
1 22.5904 39.0147 37.2405
1 43.7951 12.1338 33.409
1 22.644 32.2368 42.2883
1 38.767 7.67123 40.1598
1 25.8068 -10.6363 48.6182
1 24.1728 23.3551 46.2388
1 21.2429 42.4316 33.773
1 22.7165 5.32593 52.111
1 6.32699 36.6366 45.0937
1 30.5974 24.9382 40.7701
1 33.9386 43.7667 -2.91013
1 -27.5777 42.462 -22.123
1 -38.0035 40.694 -12.1926
1 24.2513 13.7342 49.8033
1 43.559 -31.9784 -23.7652
1 -42.8247 26.3186 22.7347
1 -28.2783 -10.3347 49.2813
1 -36.8295 -34.7455 -26.5077
1 -23.7589 -51.2436 -7.53084
1 47.6008 -4.64497 -28.5552
1 28.6852 1.009 -48.0135
1 -0.290863 -40.3616 -39.263
1 41.4877 1.37595 37.9959
1 -6.29265 30.779 -46.7309
1 -31.9512 20.2629 -42.5917
1 7.46046 22.6546 53.0548
1 51.1342 19.8633 6.24266
1 -27.4235 28.1093 -40.3625
1 -37.6445 30.0227 27.9987
1 23.9033 -46.8325 15.2571
1 -35.9033 -44.0796 -3.27434
1 22.5213 52.636 -2.14007
1 4.0995 49.8805 29.2329
1 -39.4465 -35.5534 19.5978
1 53.4057 -4.36489 -4.9696
1 30.5536 -2.36306 46.6749
1 -0.0786421 8.88421 -56.5564
1 14.8159 -52.5085 -12.9865
1 18.4432 -34.791 -42.4019
1 5.85215 -54.9863 2.20343
1 -47.4682 4.82085 30.7195
1 -44.3419 -9.71021 -30.1661
1 45.4609 -15.434 30.2637
1 -35.3388 -14.5625 -40.6682
1 -30.5916 -4.11352 48.9958
1 53.0651 8.69642 4.61613
1 27.5147 16.7034 -44.6382
1 -28.2594 4.87029 -48.9651
1 3.77054 -7.59859 55.4028
1 38.7298 19.055 -34.5602
1 -22.9747 -43.1229 24.441
1 -43.3014 32.7557 -9.35919
1 -32.5208 -1.45198 47.6861
1 28.6999 -47.6821 -15.2852
1 13.9899 52.3991 -11.3181
1 -0.118117 55.7938 3.11366
1 -21.145 -22.9704 48.1227
1 28.592 47.1345 13.973
1 12.7452 55.0297 10.2579
1 -32.3011 -38.4536 -25.9919
1 16.1123 17.1077 52.171
1 26.1147 44.2412 26.6504
1 9.73781 1.52114 -55.7567
1 33.8031 -33.6059 24.6729
1 -6.86654 49.6089 26.6667
1 22.9912 -42.2622 -32.0237
1 -45.1942 21.8648 -23.9488
1 -31.2115 -43.472 -21.0313
1 15.4425 -52.516 0.314583
1 43.2376 12.8863 33.6229
1 1.88521 -26.453 -51.5658
1 -42.1939 -15.7683 34.6544
1 28.6258 19.2773 -42.6845
1 -14.2698 48.2891 -20.9508
1 -35.1138 28.1827 -33.1978
1 11.277 43.6734 -34.3474
1 4.61521 25.2285 -49.0376
1 -18.3335 36.0598 -38.3213
1 -0.240628 34.8902 -43.9537
1 -14.9024 21.0387 -51.0714
1 -7.54123 39.6506 -36.4106
1 -20.2246 35.3574 -38.0276
1 1.67559 14.7104 -53.8567
1 3.86455 51.9758 -19.716
1 20.7173 50.074 -15.9629
1 7.16277 50.9939 -21.4458
1 10.2538 47.3742 -28.8993
1 -24.7567 13.4377 -49.6342
1 -26.065 26.4827 -42.0573
1 23.9403 39.85 -32.4649
1 31.031 45.9757 -12.6738
1 -21.7244 29.2663 -42.9037
1 -31.3727 24.1665 -40.6815
1 -6.16727 47.9653 -28.6051
1 -6.85781 50.7107 -22.3852
1 -5.86764 43.2618 -33.7953
1 -1.26865 44.8383 -33.3054
1 -3.24805 36.1917 -42.224
1 -2.69064 50.5312 -24.0035
1 -6.92471 49.7534 -24.562
1 -8.00677 47.2953 -28.7795
1 -17.3178 32.5884 -42.417
1 -24.466 45.4939 -19.8939
1 -19.307 32.8176 -41.15
1 -2.12179 42.8753 -35.4076
1 15.2565 22.727 -46.8799
1 -9.36028 41.8604 -34.3938
1 8.93831 41.2321 -37.9178
1 -19.6302 26.5013 -45.1941
1 -25.2028 24.7072 -43.7439
1 6.57254 46.0213 -32.3736
1 22.8048 31.0122 -38.9537
1 -20.1501 38.2222 -35.4221
1 -0.824675 41.3822 -37.542
1 -26.8637 39.6299 -28.1553
1 12.0865 46.4178 -29.6217
1 -23.6966 47.0173 -14.8186
1 30.3609 46.9621 -11.1643
1 -13.796 19.6262 -51.4193
1 24.692 24.282 -42.1241
1 -17.8926 25.7809 -46.6959
1 -1.92715 22.9159 -50.0913
1 -20.9897 27.1355 -44.4223
1 -6.67949 20.6387 -51.5608
1 3.31484 38.7852 -40.9011
1 19.2232 47.0819 -23.016
1 -24.2187 32.8613 -38.2811
1 -6.69713 27.1258 -48.7106
1 -21.5919 14.2951 -51.0481
1 -39.1483 34.4456 -20.1532
1 -20.9541 29.7033 -42.9142
1 33.497 10.2901 -42.636
1 17.2428 41.6479 -33.9058
1 -29.3958 30.4869 -37.1555
1 -12.9865 42.7555 -31.9603
1 1.79854 42.9595 -36.5921
1 -0.860658 20.4563 -51.1819
1 -22.3638 36.7406 -35.6988
1 -7.73318 37.9246 -38.303
1 10.0165 31.9 -45.4678
1 2.10719 16.6818 -52.9496
1 -7.96636 49.3071 -25.6164
1 0.0329443 1.06326 -57.8704
1 26.5504 18.9019 -43.898
1 6.59914 35.4049 -43.4061
1 -5.65281 47.2073 -29.396
1 18.6327 2.34743 -53.1037
1 -0.220026 49.4847 -26.7425
1 -6.033 18.4111 -52.5977
1 -5.29176 31.1982 -46.5707
1 6.88161 36.7776 -42.308
1 9.87684 50.4784 -22.1741
1 -3.81142 34.3853 -44.0145
1 16.3773 53.4921 -5.83662
1 -12.8486 44.9975 -29.551
1 2.85196 49.272 -27.3664
1 -1.66143 41.728 -36.5911
1 22.2195 21.4233 -44.7958
1 -7.19352 30.935 -46.3917
1 0.890254 25.2019 -48.9507
1 19.9717 44.2681 -28.6506
1 29.1499 18.0284 -43.0953
1 27.8025 33.7177 -33.4972
1 15.0292 38.1787 -38.535
1 6.78305 9.41895 -54.9501
1 -7.59301 36.2708 -40.6192
1 -20.8583 23.8337 -46.8241
1 2.05099 47.5447 -30.629
1 -17.0085 39.9455 -34.205
1 -15.1441 33.54 -41.8932
1 18.0258 31.4226 -41.6005
1 21.1948 36.8781 -36.3391
1 -12.3256 22.4552 -50.5797
1 3.68369 16.2985 -52.9807
1 -2.10735 6.12936 -57.486
1 -11.2462 21.3485 -51.0665
1 7.36545 28.6396 -47.3132
1 6.9569 40.2356 -39.1688
1 29.8177 29.8182 -35.1836
1 -6.41279 39.122 -37.4695
1 1.62898 30.0343 -47.104
1 -20.2483 15.3684 -50.8739
1 7.42326 31.7151 -45.9087
1 -26.586 28.6693 -40.5779
1 13.422 42.061 -35.555
1 -26.9966 25.979 -41.9481
1 -26.9491 23.3519 -43.6404
1 6.97352 15.9485 -52.1583
1 6.19796 37.2354 -42.2152
1 -12.7235 49.2998 -19.6495
1 2.86961 23.5768 -50.0324
1 3.87937 49.2459 -26.6406
1 -41.3193 24.5426 -28.7298
1 17.6263 30.24 -42.9357
1 -13.6737 41.8035 -32.4514
1 12.6307 12.3609 -52.0937
1 14.2516 -2.58171 -54.8208
1 -7.14857 24.903 -49.7573
1 -10.4141 46.068 -29.3298
1 0.296164 24.5923 -49.0812
1 -22.6114 28.9098 -42.6953
1 16.9686 19.5837 -47.3812
1 25.0396 45.638 -20.306
1 -5.59703 21.1557 -51.3008
1 -17.5985 34.4158 -40.3174
1 -11.4046 -6.68319 -56.0835
1 -15.088 16.035 -51.7213
1 9.14841 41.7439 -37.3319
1 -16.221 19.566 -51.1947
1 -6.69407 52.1905 -17.8075
1 -22.3284 43.4617 -25.1239
1 6.74704 12.0546 -53.6616
1 8.09535 47.4848 -30.4115
1 11.9489 26.2437 -47.1676
1 1.83422 31.6952 -46.1835
1 4.98343 31.5587 -46.0819
1 8.07345 4.99151 -55.2989
1 -25.4629 27.383 -41.7475
1 19.3756 10.8116 -49.9656
1 9.6798 45.7727 -32.2716
1 -18.0793 13.5202 -51.3654
1 11.3993 12.8212 -51.8691
1 -13.0477 38.5552 -36.857
1 4.74676 43.3567 -35.8982
1 5.14792 8.95211 -55.6921
1 1.7687 33.2828 -45.2075
1 -19.146 41.6827 -31.5133
1 4.71687 38.1114 -41.6176
1 7.68644 25.0945 -48.6698
1 -16.6785 34.3183 -40.5366
1 19.9452 26.151 -43.8184
1 -15.441 48.7735 -18.4003
1 -12.1784 36.7319 -38.6666
1 -23.1143 24.717 -45.0063
1 16.8336 28.504 -44.5526
1 16.6736 45.7853 -27.4396
1 -6.3388 25.1549 -49.7462
1 -23.7941 30.8734 -40.2416
1 -3.20872 39.1171 -39.1299
1 -4.75286 25.1008 -49.6812
1 21.4937 2.5265 -51.8116
1 16.5605 33.2991 -41.3473
1 29.234 43.4473 -22.2301
1 -2.49879 48.1766 -28.7727
1 35.4339 -0.124336 -43.5585
1 13.4524 30.8584 -45.1935
1 16.3706 20.2946 -47.8388
1 -33.6856 27.9022 -35.301
1 -2.77772 44.6231 -33.3016
1 -5.23933 15.6225 -53.8688
1 -20.8963 30.8913 -41.8676
1 0.229906 38.304 -41.1359
1 11.6871 17.0147 -50.5745
1 7.82289 17.151 -51.6283
1 -10.0157 29.2648 -46.993
1 -8.58762 35.235 -41.8724
1 17.3972 40.2866 -35.7055
1 -25.8902 35.0881 -34.7076
1 -2.57955 17.2452 -53.1373
1 23.3975 26.4339 -41.6077
1 33.7947 8.03559 -42.6221
1 23.4356 30.3525 -38.6901
1 19.6726 41.6148 -33.3132
1 40.6792 -2.05625 -38.8085
1 -0.551336 37.9731 -41.2391
1 19.6225 -1.12035 -53.1504
1 -1.96135 10.8998 -56.0674
1 12.3519 2.10594 -54.8182
1 22.8737 13.4104 -47.6911
1 6.9381 38.2081 -41.1141
1 27.632 31.4955 -35.2235
1 -0.61352 32.0433 -46.0882
1 2.12094 23.0846 -50.0545
1 -16.6539 39.4031 -34.7581
1 -12.4995 40.9064 -34.0197
1 -11.6483 17.7652 -52.2772
1 -9.85369 -4.62102 -56.6467
1 4.39247 -10.2384 -56.9639
1 -14.9273 29.2197 -45.5142
1 22.6152 20.6364 -44.6896
1 7.4938 5.79609 -55.4548
1 23.3358 9.61994 -49.1693
1 -22.3486 37.3449 -34.9628
1 10.4705 3.39423 -54.9971
1 20.0143 -8.31809 -53.494
1 8.74518 33.982 -44.101
1 26.8461 -25.2351 -45.149
1 17.4143 31.337 -42.1762
1 10.9945 37.44 -41.1661
1 -36.8483 15.0956 -39.8212
1 10.1587 7.01722 -54.368
1 17.9277 33.8111 -40.497
1 -19.5823 9.5185 -52.1883
1 6.77895 15.1292 -52.5473
1 3.92454 45.9284 -32.8107
1 -12.2328 38.1538 -37.0648
1 -7.89375 27.3351 -48.607
1 -13.7519 20.4256 -51.214
1 4.8412 39.9345 -39.6919
1 -8.54144 21.213 -51.5086
1 8.36903 -11.739 -56.0706
1 -17.3806 22.6197 -49.7582
1 -31.2887 33.2753 -31.3654
1 6.27805 47.1841 -30.7228
1 6.32711 24.1015 -49.1084
1 -14.5884 8.4474 -53.8169
1 -1.21151 27.1724 -48.0772
1 32.3468 28.7411 -34.2819
1 20.8598 29.9479 -40.7829
1 6.99257 2.81949 -56.0562
1 17.8676 19.3369 -47.4612
1 24.3604 22.8083 -42.9503
1 4.00851 26.5095 -48.5028
1 -5.04893 40.2934 -36.725
1 3.65126 2.33701 -57.1548
1 1.88634 36.2883 -42.9761
1 31.086 29.3568 -35.0087
1 -38.6401 31.2868 -26.4456
1 3.97033 44.1291 -35.0802
1 7.84437 2.572 -56.0573
1 2.3153 5.6493 -56.5959
1 12.9842 33.7951 -43.2733
1 8.36372 43.1647 -35.4482
1 22.1985 32.3052 -38.2649
1 -8.34161 38.8374 -37.0272
1 -1.59478 14.527 -54.422
1 -13.8169 4.23335 -54.9437
1 -6.20663 14.9118 -54.2705
1 2.45102 11.7158 -55.4846
1 -7.24148 10.3989 -55.8365
1 5.87265 9.0325 -55.1865
1 -11.5935 32.4008 -44.4672
1 8.1106 22.1592 -49.9022
1 -21.1151 35.8969 -37.2147
1 -4.00184 38.8265 -38.9124
1 37.7244 35.9274 -23.7417
1 5.70494 8.15254 -55.5823
1 5.42797 26.714 -48.4575
1 1.98927 37.6995 -41.7387
1 29.5794 30.9537 -34.0044
1 6.1413 18.448 -51.4758
1 5.01782 7.00203 -55.9525
1 19.535 29.5437 -41.9858
1 22.556 26.1308 -42.0714
1 -9.67295 16.4098 -53.1108
1 3.96242 31.0245 -46.2986
1 0.173738 -14.8195 -56.3284
1 -8.12501 22.0844 -51.1
1 26.33 25.6538 -40.1582
1 8.99563 33.1949 -44.4656
1 16.5632 32.4738 -41.6718
1 -13.4669 37.2641 -38.0517
1 21.7741 36.1874 -36.3411
1 0.834751 26.1482 -48.6349